
FAST Summary File

Predictions were generated on 10-Oct-2019 at 17:34:22 using OpenFAST, compiled as a 64-bit application using double precision at commit v2.1.0-13-gb156ec27
  compiled with
    NWTC Subroutine Library
    ElastoDyn
    BeamDyn [not called]
    InflowWind
    AeroDyn14 [not called]
    AeroDyn
    ServoDyn
    HydroDyn [not called]
    SubDyn [not called]
    ExtPtfm_MCKF [not called]
    MAP [not called]
    FEAMooring [not called]
    MoorDyn [not called]
    OrcaFlexInterface [not called]
    IceFloe [not called]
    IceDyn [not called]


Modeling a land-based turbine
Description from the FAST input file: 
  AeroElasticSE FAST driver

Interpolation order for input/output time histories: 2 (quadratic)
Number of correction iterations:  0


   Requested Time Steps  
  -------------------------------------------------
  Component          Time Step (s)    Subcycles (-)
  -----------------  ---------------  -------------
  FAST (glue code)    1.000E-02
  InflowWind          1.000E-02              1
  ElastoDyn           1.000E-02              1
  AeroDyn             1.000E-02              1
  ServoDyn            1.000E-02              1
  FAST output files   1.000E-02              1


   Requested Channels in FAST Output File(s)  
  --------------------------------------------
  Number  Name        Units       Generated by
  ------  ----------  ----------  ------------
       1  Time        (s)         OpenFAST
       2  Wind1VelX   (m/s)       InflowWind
       3  Wind1VelY   (m/s)       InflowWind
       4  Wind1VelZ   (m/s)       InflowWind
       5  GenSpeed    (rpm)       ElastoDyn
       6  HSSBrTq     (kN-m)      ElastoDyn
       7  HSShftTq    (kN-m)      ElastoDyn
       8  LSSTipMya   (kN-m)      ElastoDyn
       9  LSSTipMys   (kN-m)      ElastoDyn
      10  LSSTipMza   (kN-m)      ElastoDyn
      11  LSSTipMzs   (kN-m)      ElastoDyn
      12  LSSTipPxa   (deg)       ElastoDyn
      13  LSShftFxa   (kN)        ElastoDyn
      14  LSShftFya   (kN)        ElastoDyn
      15  LSShftFys   (kN)        ElastoDyn
      16  LSShftFza   (kN)        ElastoDyn
      17  LSShftFzs   (kN)        ElastoDyn
      18  LSShftMxa   (kN-m)      ElastoDyn
      19  NcIMUTAxs   (m/s^2)     ElastoDyn
      20  NcIMUTAys   (m/s^2)     ElastoDyn
      21  PtchPMzc1   (deg)       ElastoDyn
      22  PtchPMzc2   (deg)       ElastoDyn
      23  PtchPMzc3   (deg)       ElastoDyn
      24  RootFxb1    (kN)        ElastoDyn
      25  RootFxb2    (kN)        ElastoDyn
      26  RootFxb3    (kN)        ElastoDyn
      27  RootFxc1    (kN)        ElastoDyn
      28  RootFxc2    (kN)        ElastoDyn
      29  RootFxc3    (kN)        ElastoDyn
      30  RootFyb1    (kN)        ElastoDyn
      31  RootFyb2    (kN)        ElastoDyn
      32  RootFyb3    (kN)        ElastoDyn
      33  RootFyc1    (kN)        ElastoDyn
      34  RootFyc2    (kN)        ElastoDyn
      35  RootFyc3    (kN)        ElastoDyn
      36  RootFzb1    (kN)        ElastoDyn
      37  RootFzb2    (kN)        ElastoDyn
      38  RootFzb3    (kN)        ElastoDyn
      39  RootMxb1    (kN-m)      ElastoDyn
      40  RootMxb2    (kN-m)      ElastoDyn
      41  RootMxb3    (kN-m)      ElastoDyn
      42  RootMxc1    (kN-m)      ElastoDyn
      43  RootMxc2    (kN-m)      ElastoDyn
      44  RootMxc3    (kN-m)      ElastoDyn
      45  RootMyb1    (kN-m)      ElastoDyn
      46  RootMyb2    (kN-m)      ElastoDyn
      47  RootMyb3    (kN-m)      ElastoDyn
      48  RootMyc1    (kN-m)      ElastoDyn
      49  RootMyc2    (kN-m)      ElastoDyn
      50  RootMyc3    (kN-m)      ElastoDyn
      51  RootMzb1    (kN-m)      ElastoDyn
      52  RootMzb2    (kN-m)      ElastoDyn
      53  RootMzb3    (kN-m)      ElastoDyn
      54  RotSpeed    (rpm)       ElastoDyn
      55  Spn1FLxb1   (kN)        ElastoDyn
      56  Spn1FLyb1   (kN)        ElastoDyn
      57  Spn1FLzb1   (kN)        ElastoDyn
      58  Spn1MLxb1   (kN-m)      ElastoDyn
      59  Spn1MLyb1   (kN-m)      ElastoDyn
      60  Spn1MLzb1   (kN-m)      ElastoDyn
      61  Spn2FLxb1   (kN)        ElastoDyn
      62  Spn2FLyb1   (kN)        ElastoDyn
      63  Spn2FLzb1   (kN)        ElastoDyn
      64  Spn2MLxb1   (kN-m)      ElastoDyn
      65  Spn2MLyb1   (kN-m)      ElastoDyn
      66  Spn2MLzb1   (kN-m)      ElastoDyn
      67  Spn3FLxb1   (kN)        ElastoDyn
      68  Spn3FLyb1   (kN)        ElastoDyn
      69  Spn3FLzb1   (kN)        ElastoDyn
      70  Spn3MLxb1   (kN-m)      ElastoDyn
      71  Spn3MLyb1   (kN-m)      ElastoDyn
      72  Spn3MLzb1   (kN-m)      ElastoDyn
      73  Spn4FLxb1   (kN)        ElastoDyn
      74  Spn4FLyb1   (kN)        ElastoDyn
      75  Spn4FLzb1   (kN)        ElastoDyn
      76  Spn4MLxb1   (kN-m)      ElastoDyn
      77  Spn4MLyb1   (kN-m)      ElastoDyn
      78  Spn4MLzb1   (kN-m)      ElastoDyn
      79  Spn5FLxb1   (kN)        ElastoDyn
      80  Spn5FLyb1   (kN)        ElastoDyn
      81  Spn5FLzb1   (kN)        ElastoDyn
      82  Spn5MLxb1   (kN-m)      ElastoDyn
      83  Spn5MLyb1   (kN-m)      ElastoDyn
      84  Spn5MLzb1   (kN-m)      ElastoDyn
      85  Spn6FLxb1   (kN)        ElastoDyn
      86  Spn6FLyb1   (kN)        ElastoDyn
      87  Spn6FLzb1   (kN)        ElastoDyn
      88  Spn6MLxb1   (kN-m)      ElastoDyn
      89  Spn6MLyb1   (kN-m)      ElastoDyn
      90  Spn6MLzb1   (kN-m)      ElastoDyn
      91  Spn7FLxb1   (kN)        ElastoDyn
      92  Spn7FLyb1   (kN)        ElastoDyn
      93  Spn7FLzb1   (kN)        ElastoDyn
      94  Spn7MLxb1   (kN-m)      ElastoDyn
      95  Spn7MLyb1   (kN-m)      ElastoDyn
      96  Spn7MLzb1   (kN-m)      ElastoDyn
      97  Spn8FLxb1   (kN)        ElastoDyn
      98  Spn8FLyb1   (kN)        ElastoDyn
      99  Spn8FLzb1   (kN)        ElastoDyn
     100  Spn8MLxb1   (kN-m)      ElastoDyn
     101  Spn8MLyb1   (kN-m)      ElastoDyn
     102  Spn8MLzb1   (kN-m)      ElastoDyn
     103  Spn9FLxb1   (kN)        ElastoDyn
     104  Spn9FLyb1   (kN)        ElastoDyn
     105  Spn9FLzb1   (kN)        ElastoDyn
     106  Spn9MLxb1   (kN-m)      ElastoDyn
     107  Spn9MLyb1   (kN-m)      ElastoDyn
     108  Spn9MLzb1   (kN-m)      ElastoDyn
     109  TipClrnc1   (m)         ElastoDyn
     110  TipClrnc2   (m)         ElastoDyn
     111  TipClrnc3   (m)         ElastoDyn
     112  TipDxb1     (m)         ElastoDyn
     113  TipDxb2     (m)         ElastoDyn
     114  TipDxb3     (m)         ElastoDyn
     115  TipDxc1     (m)         ElastoDyn
     116  TipDxc2     (m)         ElastoDyn
     117  TipDxc3     (m)         ElastoDyn
     118  TipDyb1     (m)         ElastoDyn
     119  TipDyb2     (m)         ElastoDyn
     120  TipDyb3     (m)         ElastoDyn
     121  TipDyc1     (m)         ElastoDyn
     122  TipDyc2     (m)         ElastoDyn
     123  TipDyc3     (m)         ElastoDyn
     124  TipDzb1     (m)         ElastoDyn
     125  TipDzb2     (m)         ElastoDyn
     126  TipDzb3     (m)         ElastoDyn
     127  TipDzc1     (m)         ElastoDyn
     128  TipDzc2     (m)         ElastoDyn
     129  TipDzc3     (m)         ElastoDyn
     130  TwrBsFxt    (kN)        ElastoDyn
     131  TwrBsFyt    (kN)        ElastoDyn
     132  TwrBsFzt    (kN)        ElastoDyn
     133  TwrBsMxt    (kN-m)      ElastoDyn
     134  TwrBsMyt    (kN-m)      ElastoDyn
     135  TwrBsMzt    (kN-m)      ElastoDyn
     136  YawBrFxn    (kN)        ElastoDyn
     137  YawBrFxp    (kN)        ElastoDyn
     138  YawBrFyn    (kN)        ElastoDyn
     139  YawBrFyp    (kN)        ElastoDyn
     140  YawBrFzn    (kN)        ElastoDyn
     141  YawBrMxn    (kN-m)      ElastoDyn
     142  YawBrMxp    (kN-m)      ElastoDyn
     143  YawBrMyn    (kN-m)      ElastoDyn
     144  YawBrMyp    (kN-m)      ElastoDyn
     145  YawBrMzn    (kN-m)      ElastoDyn
     146  YawBrTDxt   (m)         ElastoDyn
     147  YawBrTDyt   (m)         ElastoDyn
     148  YawPzn      (deg)       ElastoDyn
     149  RtVAvgxh    (m/s)       AeroDyn
     150  RtVAvgyh    (m/s)       AeroDyn
     151  RtVAvgzh    (m/s)       AeroDyn
     152  GenPwr      (kW)        ServoDyn
